HEADER
"PSFversion" "1.00"
"I0n" "NAND"
"I2n" "binary"
"ASRv" ":1v"
"B1v" ":2v"
"B2v" ":3v"
"B3v" ":4v"
"B4v" ":5v"
"B5v" ":6v"
"B6v" ":7v"
"B7v" ":8v"
"DCv" ":9v"
"GNDv" ":10v"
"VDDv" ":11v"
