HEADER
"PSFversion" "1.00"
"I0n" "integrated"
"V1n V0n" "analogLib_vpulse_spectre"
