HEADER
"PSFversion" "1.00"
"I0n" "trans_gate"
"V0n" "analogLib_vdc_spectre"
"V2n V1n" "analogLib_vpulse_spectre"
"C0n" "analogLib_cap_spectre"
