HEADER
"PSFversion" "1.00"
"I10n I9n I8n I7n I6n I5n I4n I3n I19n I2n I1n I18n I15n I17n I14n I13n I12n I0n I16n I11n" "inv"
"GNDv" ":1v"
"INv" ":2v"
"OUTv" ":3v"
"VDDv" ":4v"
