HEADER
"PSFversion" "1.00"
"I2n" "delay_chain"
"V1n" "analogLib_vdc_spectre"
"V0n" "analogLib_vpulse_spectre"
"C0n" "analogLib_cap_spectre"
