HEADER
"PSFversion" "1.00"
"NM0n" "umc13mmrf_N_12_HSL130E_spectre"
"PM0n" "umc13mmrf_P_12_HSL130E_spectre"
"GNDv" ":1v"
"INv" ":2v"
"OUTv" ":3v"
"VDDv" ":4v"
