HEADER
"PSFversion" "1.00"
"design" "(\"Project_Lib1_sim\" \"dflipflop_sim\" \"schematic\" \"\")"
"simulator" "spectre"
"temperature" "27"
"host" ""
"date" "May  2 12:40:49 2022"
"title" ""
"analysisList" "()"
END
