HEADER
"PSFversion" "1.00"
"design" "(\"Project_Lib1_sim\" \"dflipflop_sim\" \"schematic\" \"\")"
"simulator" "spectre"
"temperature" "27"
"host" ""
"date" "Apr 27 10:55:26 2022"
"title" ""
"analysisList" "()"
END
