HEADER
"PSFversion" "1.00"
"Time Stamp" "May  2 12:40:49 2022"
TYPE
"variable" STRUCT(
"value" FLOAT DOUBLE
) PROP( "key" "element" )
VALUE
"temp" "variable" ( 27 ) PROP( )
END
