HEADER
"PSFversion" "1.00"
"design" "(\"Project_Lib1_sim\" \"binary_sim\" \"schematic\" \"\")"
"simulator" "spectre"
"temperature" "27"
"host" ""
"date" "May  9 17:37:10 2022"
"title" ""
"analysisList" "()"
END
