HEADER
"PSFversion" "1.00"
"I0n" "reset"
"C0n" "analogLib_cap_spectre"
"V2n V1n" "analogLib_vpulse_spectre"
"I3n" "photodiode"
