HEADER
"PSFversion" "1.00"
"PM1n PM0n" "umc13mmrf_P_12_HSL130E_spectre"
"ASRv" ":1v"
"GRv" ":2v"
"VDDv" ":3v"
"VNv" ":4v"
