HEADER
"PSFversion" "1.00"
"I13n I12n I11n I10n I9n I8n I1n I0n" "dff"
"GNDv" ":1v"
"INv" ":2v"
"Q0v" ":3v"
"Q1v" ":4v"
"Q2v" ":5v"
"Q3v" ":6v"
"Q4v" ":7v"
"Q5v" ":8v"
"Q6v" ":9v"
"Q7v" ":10v"
"VDDv" ":11v"
"nRSTv" ":12v"
