HEADER
"PSFversion" "1.00"
"design" "(\"Project_Lib1_sim\" \"integrated_sim\" \"schematic\" \"\")"
"simulator" "spectre"
"temperature" "27"
"host" ""
"date" "May  3 18:04:07 2022"
"title" ""
"analysisList" "()"
END
