HEADER
"PSFversion" "1.00"
"design" "(\"Project_Lib1_sim\" \"trans_gate_sim\" \"schematic\" \"\")"
"simulator" "spectre"
"temperature" "27"
"host" ""
"date" "May 10 13:41:45 2022"
"title" ""
"analysisList" "()"
END
