HEADER
"PSFversion" "1.00"
"Time Stamp" "May  9 16:58:06 2022"
TYPE
"variable" STRUCT(
"value" FLOAT DOUBLE
) PROP( "key" "element" )
VALUE
"temp" "variable" ( 27 ) PROP( )
END
