HEADER
"PSFversion" "1.00"
"simulator" "spectre"
"version" "15.1.0.345.isr2"
"date" "4:34:19 PM, Tue May 3, 2022"
"design" "// Generated for: spectre"
"analysis type" "info"
"analysis name" "designParamVals"
"analysis description" "Circuit Information"
"xVecSorted" "unknown"
"tolerance.relative" 0.00100000
TYPE
"top-level" STRUCT(
"temp" FLOAT DOUBLE
"tnom" FLOAT DOUBLE
"time" FLOAT DOUBLE
"d_cj_12n" FLOAT DOUBLE
"d_cjsw_12n" FLOAT DOUBLE
"d_cjswg_12n" FLOAT DOUBLE
"d_cj_nwtw_12n" FLOAT DOUBLE
"d_cjsw_nwtw_12n" FLOAT DOUBLE
"d_cj_nw_12n" FLOAT DOUBLE
"d_cjsw_nw_12n" FLOAT DOUBLE
"d_tox_12n" FLOAT DOUBLE
"d_nch_12n" FLOAT DOUBLE
"d_lint_12n" FLOAT DOUBLE
"d_wint_12n" FLOAT DOUBLE
"d_vth0_12n" FLOAT DOUBLE
"d_rdsw_12n" FLOAT DOUBLE
"d_cgdo_12n" FLOAT DOUBLE
"d_cgso_12n" FLOAT DOUBLE
"d_dlc_12n" FLOAT DOUBLE
"d_dwc_12n" FLOAT DOUBLE
"d_rgc_12n" FLOAT DOUBLE
"d_rgi_12n" FLOAT DOUBLE
"d_cgd_ext_12n" FLOAT DOUBLE
"d_cds_ext_12n" FLOAT DOUBLE
"d_rch_12n" FLOAT DOUBLE
"d_cj_12p" FLOAT DOUBLE
"d_cjsw_12p" FLOAT DOUBLE
"d_cjswg_12p" FLOAT DOUBLE
"d_cj_nw_12p" FLOAT DOUBLE
"d_cjsw_nw_12p" FLOAT DOUBLE
"d_tox_12p" FLOAT DOUBLE
"d_nch_12p" FLOAT DOUBLE
"d_lint_12p" FLOAT DOUBLE
"d_wint_12p" FLOAT DOUBLE
"d_vth0_12p" FLOAT DOUBLE
"d_rdsw_12p" FLOAT DOUBLE
"d_cgdo_12p" FLOAT DOUBLE
"d_cgso_12p" FLOAT DOUBLE
"d_dlc_12p" FLOAT DOUBLE
"d_dwc_12p" FLOAT DOUBLE
"d_rgc_12p" FLOAT DOUBLE
"d_rgi_12p" FLOAT DOUBLE
"d_cgd_ext_12p" FLOAT DOUBLE
"d_cds_ext_12p" FLOAT DOUBLE
"d_rch_12p" FLOAT DOUBLE
"d_cj_33n" FLOAT DOUBLE
"d_cjsw_33n" FLOAT DOUBLE
"d_cjswg_33n" FLOAT DOUBLE
"d_cj_nwtw_33n" FLOAT DOUBLE
"d_cjsw_nwtw_33n" FLOAT DOUBLE
"d_cj_nw_33n" FLOAT DOUBLE
"d_cjsw_nw_33n" FLOAT DOUBLE
"d_tox_33n" FLOAT DOUBLE
"d_nch_33n" FLOAT DOUBLE
"d_lint_33n" FLOAT DOUBLE
"d_wint_33n" FLOAT DOUBLE
"d_vth0_33n" FLOAT DOUBLE
"d_rdsw_33n" FLOAT DOUBLE
"d_cgdo_33n" FLOAT DOUBLE
"d_cgso_33n" FLOAT DOUBLE
"d_dlc_33n" FLOAT DOUBLE
"d_dwc_33n" FLOAT DOUBLE
"d_rshg_33n" FLOAT DOUBLE
"d_rcnt_33n" FLOAT DOUBLE
"d_rvia_33n" FLOAT DOUBLE
"d_cgd_ext_33n" FLOAT DOUBLE
"d_cgb_ext_33n" FLOAT DOUBLE
"d_cds_ext_33n" FLOAT DOUBLE
"d_rch_33n" FLOAT DOUBLE
"d_cj_33p" FLOAT DOUBLE
"d_cjsw_33p" FLOAT DOUBLE
"d_cjswg_33p" FLOAT DOUBLE
"d_cj_nw_33p" FLOAT DOUBLE
"d_cjsw_nw_33p" FLOAT DOUBLE
"d_tox_33p" FLOAT DOUBLE
"d_nch_33p" FLOAT DOUBLE
"d_lint_33p" FLOAT DOUBLE
"d_wint_33p" FLOAT DOUBLE
"d_vth0_33p" FLOAT DOUBLE
"d_rdsw_33p" FLOAT DOUBLE
"d_cgdo_33p" FLOAT DOUBLE
"d_cgso_33p" FLOAT DOUBLE
"d_dlc_33p" FLOAT DOUBLE
"d_dwc_33p" FLOAT DOUBLE
"d_rshg_33p" FLOAT DOUBLE
"d_rcnt_33p" FLOAT DOUBLE
"d_rvia_33p" FLOAT DOUBLE
"d_cgd_ext_33p" FLOAT DOUBLE
"d_cgb_ext_33p" FLOAT DOUBLE
"d_cds_ext_33p" FLOAT DOUBLE
"d_rch_33p" FLOAT DOUBLE
"d_isnn" FLOAT DOUBLE
"d_bfnn" FLOAT DOUBLE
"d_renn" FLOAT DOUBLE
"d_cjenn" FLOAT DOUBLE
"d_cjcnn" FLOAT DOUBLE
"d_cjsnn" FLOAT DOUBLE
"d_isn" FLOAT DOUBLE
"d_bfn" FLOAT DOUBLE
"d_ren" FLOAT DOUBLE
"d_cjen" FLOAT DOUBLE
"d_cjcn" FLOAT DOUBLE
"d_cjsn" FLOAT DOUBLE
"d_isp" FLOAT DOUBLE
"d_bfp" FLOAT DOUBLE
"d_rep" FLOAT DOUBLE
"d_cjep" FLOAT DOUBLE
"d_cjcp" FLOAT DOUBLE
"d_dlc_mis12" FLOAT DOUBLE
"d_dwc_mis12" FLOAT DOUBLE
"d_tox_mis12" FLOAT DOUBLE
"d_cj_mis12" FLOAT DOUBLE
"d_cjsw_mis12" FLOAT DOUBLE
"d_c_frg_mis12" FLOAT DOUBLE
"d_r_gate_mis12" FLOAT DOUBLE
"d_dlc_mis33" FLOAT DOUBLE
"d_dwc_mis33" FLOAT DOUBLE
"d_tox_mis33" FLOAT DOUBLE
"d_cj_mis33" FLOAT DOUBLE
"d_cjsw_mis33" FLOAT DOUBLE
"d_c_frg_mis33" FLOAT DOUBLE
"d_r_gate_mis33" FLOAT DOUBLE
"d_re_unit" FLOAT DOUBLE
"d_rsh_nw" FLOAT DOUBLE
"d_cf_m1" FLOAT DOUBLE
"d_cjo_ppnw" FLOAT DOUBLE
"d_cjsw_ppnw" FLOAT DOUBLE
"d_cjo_nwpsub" FLOAT DOUBLE
"d_cjsw_nwpsub" FLOAT DOUBLE
"d_cj_mmc" FLOAT DOUBLE
"d_rext_mmc" FLOAT DOUBLE
"d_cox1_mmc" FLOAT DOUBLE
"d_cox2_mmc" FLOAT DOUBLE
"d_rcntn" FLOAT DOUBLE
"d_rendn" FLOAT DOUBLE
"d_rsh_polyn" FLOAT DOUBLE
"d_dwn" FLOAT DOUBLE
"d_can" FLOAT DOUBLE
"d_cpn" FLOAT DOUBLE
"d_rcntp" FLOAT DOUBLE
"d_rendp" FLOAT DOUBLE
"d_rsh_polyp" FLOAT DOUBLE
"d_dwp" FLOAT DOUBLE
"d_cap" FLOAT DOUBLE
"d_cpp" FLOAT DOUBLE
"d_rcnth" FLOAT DOUBLE
"d_rendh" FLOAT DOUBLE
"d_rsh_polyh" FLOAT DOUBLE
"d_dwh" FLOAT DOUBLE
"d_cah" FLOAT DOUBLE
"d_cph" FLOAT DOUBLE
"d_rvia7l" FLOAT DOUBLE
"d_rvia6l" FLOAT DOUBLE
"d_c1l" FLOAT DOUBLE
"d_dwl" FLOAT DOUBLE
"d_rsh_m8l" FLOAT DOUBLE
"d_rsh_m6l" FLOAT DOUBLE
"d_f0l" FLOAT DOUBLE
"d_f1l" FLOAT DOUBLE
"d_covl" FLOAT DOUBLE
"d_cal" FLOAT DOUBLE
"d_cpil" FLOAT DOUBLE
"d_cpxl" FLOAT DOUBLE
"d_ca_upl" FLOAT DOUBLE
"d_rsh_nwl" FLOAT DOUBLE
"d_cj_nwl" FLOAT DOUBLE
"d_cjsw_nwl" FLOAT DOUBLE
"d_rsh_subl" FLOAT DOUBLE
"d_rvias" FLOAT DOUBLE
"d_c1s" FLOAT DOUBLE
"d_cc_v1s" FLOAT DOUBLE
"d_cc_v2s" FLOAT DOUBLE
"d_cc_hs" FLOAT DOUBLE
"d_rsh_mtls" FLOAT DOUBLE
"d_rsh_nws" FLOAT DOUBLE
"d_cj_nws" FLOAT DOUBLE
"d_cjsw_nws" FLOAT DOUBLE
"d_rsh_subs" FLOAT DOUBLE
"d_cov_m23_ep" FLOAT DOUBLE
"d_cf_m1_ep" FLOAT DOUBLE
"d_cjo_ep" FLOAT DOUBLE
"d_cjsw_ep" FLOAT DOUBLE
"d_cov_m23_en" FLOAT DOUBLE
"d_cf_m1_en" FLOAT DOUBLE
"d_cjo_en" FLOAT DOUBLE
"d_cjsw_en" FLOAT DOUBLE
"d_cpad" FLOAT DOUBLE
"d_cj_mimcaps_15f_rf" FLOAT DOUBLE
"d_rext_mimcaps_15f_rf" FLOAT DOUBLE
"d_cox1_mimcaps_15f_rf" FLOAT DOUBLE
"d_cox2_mimcaps_15f_rf" FLOAT DOUBLE
"d_cj_20fmmc" FLOAT DOUBLE
"d_rext_20fmmc" FLOAT DOUBLE
"d_cox1_20fmmc" FLOAT DOUBLE
"d_cox2_20fmmc" FLOAT DOUBLE
"d_c1_vp_rf" FLOAT DOUBLE
"d_r_vp_rf" FLOAT DOUBLE
"d_cox_vp_rf" FLOAT DOUBLE
"dtox_n_12_lll130e" FLOAT DOUBLE
"dvth0_n_12_lll130e" FLOAT DOUBLE
"du0_n_12_lll130e" FLOAT DOUBLE
"dvsat_n_12_lll130e" FLOAT DOUBLE
"dwint_n_12_lll130e" FLOAT DOUBLE
"dlint_n_12_lll130e" FLOAT DOUBLE
"drdsw_n_12_lll130e" FLOAT DOUBLE
"dcgso_n_12_lll130e" FLOAT DOUBLE
"dcgdo_n_12_lll130e" FLOAT DOUBLE
"dcj_n_12_lll130e" FLOAT DOUBLE
"dcjsw_n_12_lll130e" FLOAT DOUBLE
"dcjswg_n_12_lll130e" FLOAT DOUBLE
"dlvth0_n_12_lll130e" FLOAT DOUBLE
"dwvth0_n_12_lll130e" FLOAT DOUBLE
"dpvth0_n_12_lll130e" FLOAT DOUBLE
"dpvsat_n_12_lll130e" FLOAT DOUBLE
"dwu0_n_12_lll130e" FLOAT DOUBLE
"dpu0_n_12_lll130e" FLOAT DOUBLE
"dtox_p_12_lll130e" FLOAT DOUBLE
"dvth0_p_12_lll130e" FLOAT DOUBLE
"du0_p_12_lll130e" FLOAT DOUBLE
"dvsat_p_12_lll130e" FLOAT DOUBLE
"dwint_p_12_lll130e" FLOAT DOUBLE
"dlint_p_12_lll130e" FLOAT DOUBLE
"drdsw_p_12_lll130e" FLOAT DOUBLE
"dcgso_p_12_lll130e" FLOAT DOUBLE
"dcgdo_p_12_lll130e" FLOAT DOUBLE
"dcj_p_12_lll130e" FLOAT DOUBLE
"dcjsw_p_12_lll130e" FLOAT DOUBLE
"dcjswg_p_12_lll130e" FLOAT DOUBLE
"dwu0_p_12_lll130e" FLOAT DOUBLE
"dpu0_p_12_lll130e" FLOAT DOUBLE
"dpvsat_p_12_lll130e" FLOAT DOUBLE
"dlvth0_p_12_lll130e" FLOAT DOUBLE
"dwvth0_p_12_lll130e" FLOAT DOUBLE
"dpvth0_p_12_lll130e" FLOAT DOUBLE
"dtox_n_hglvbpw_33_l130e" FLOAT DOUBLE
"dvth0_n_hglvbpw_33_l130e" FLOAT DOUBLE
"du0_n_hglvbpw_33_l130e" FLOAT DOUBLE
"dvsat_n_hglvbpw_33_l130e" FLOAT DOUBLE
"dwint_n_hglvbpw_33_l130e" FLOAT DOUBLE
"dlint_n_hglvbpw_33_l130e" FLOAT DOUBLE
"drdsw_n_hglvbpw_33_l130e" FLOAT DOUBLE
"dcgso_n_hglvbpw_33_l130e" FLOAT DOUBLE
"dcgdo_n_hglvbpw_33_l130e" FLOAT DOUBLE
"dcj_n_hglvbpw_33_l130e" FLOAT DOUBLE
"dcjsw_n_hglvbpw_33_l130e" FLOAT DOUBLE
"dcjswg_n_hglvbpw_33_l130e" FLOAT DOUBLE
"dlvth0_n_hglvbpw_33_l130e" FLOAT DOUBLE
"dpvth0_n_hglvbpw_33_l130e" FLOAT DOUBLE
"dpvsat_n_hglvbpw_33_l130e" FLOAT DOUBLE
"dwvth0_n_hglvbpw_33_l130e" FLOAT DOUBLE
"dpu0_n_hglvbpw_33_l130e" FLOAT DOUBLE
"dwu0_n_hglvbpw_33_l130e" FLOAT DOUBLE
"dtox_n_hgbpw_33_l130e" FLOAT DOUBLE
"dcj_n_hgbpw_33_l130e" FLOAT DOUBLE
"dvth0_n_hgbpw_33_l130e" FLOAT DOUBLE
"dcjsw_n_hgbpw_33_l130e" FLOAT DOUBLE
"dags_n_hgbpw_33_l130e" FLOAT DOUBLE
"dcjswg_n_hgbpw_33_l130e" FLOAT DOUBLE
"dlvth0_n_hgbpw_33_l130e" FLOAT DOUBLE
"dcgdo_n_hgbpw_33_l130e" FLOAT DOUBLE
"dlint_n_hgbpw_33_l130e" FLOAT DOUBLE
"dcgso_n_hgbpw_33_l130e" FLOAT DOUBLE
"dvsat_n_hgbpw_33_l130e" FLOAT DOUBLE
"dwvth0_n_hgbpw_33_l130e" FLOAT DOUBLE
"dwint_n_hgbpw_33_l130e" FLOAT DOUBLE
"dpvth0_n_hgbpw_33_l130e" FLOAT DOUBLE
"dtox_n_bpw_12_hsl130e" FLOAT DOUBLE
"dvth0_n_bpw_12_hsl130e" FLOAT DOUBLE
"du0_n_bpw_12_hsl130e" FLOAT DOUBLE
"dvsat_n_bpw_12_hsl130e" FLOAT DOUBLE
"dwint_n_bpw_12_hsl130e" FLOAT DOUBLE
"dlint_n_bpw_12_hsl130e" FLOAT DOUBLE
"drdsw_n_bpw_12_hsl130e" FLOAT DOUBLE
"dcgso_n_bpw_12_hsl130e" FLOAT DOUBLE
"dcgdo_n_bpw_12_hsl130e" FLOAT DOUBLE
"dcj_n_bpw_12_hsl130e" FLOAT DOUBLE
"dcjsw_n_bpw_12_hsl130e" FLOAT DOUBLE
"dcjswg_n_bpw_12_hsl130e" FLOAT DOUBLE
"dpvsat_n_bpw_12_hsl130e" FLOAT DOUBLE
"dpu0_n_bpw_12_hsl130e" FLOAT DOUBLE
"dlvth0_n_bpw_12_hsl130e" FLOAT DOUBLE
"dwu0_n_bpw_12_hsl130e" FLOAT DOUBLE
"dwvth0_n_bpw_12_hsl130e" FLOAT DOUBLE
"dpvth0_n_bpw_12_hsl130e" FLOAT DOUBLE
"dpnfactor_n_bpw_12_hsl130e" FLOAT DOUBLE
"dtox_n_lvbpw_12_hsl130e" FLOAT DOUBLE
"dvth0_n_lvbpw_12_hsl130e" FLOAT DOUBLE
"dk3_n_lvbpw_12_hsl130e" FLOAT DOUBLE
"dnlx_n_lvbpw_12_hsl130e" FLOAT DOUBLE
"du0_n_lvbpw_12_hsl130e" FLOAT DOUBLE
"dvsat_n_lvbpw_12_hsl130e" FLOAT DOUBLE
"drdsw_n_lvbpw_12_hsl130e" FLOAT DOUBLE
"dcgso_n_lvbpw_12_hsl130e" FLOAT DOUBLE
"dcgdo_n_lvbpw_12_hsl130e" FLOAT DOUBLE
"dcgsl_n_lvbpw_12_hsl130e" FLOAT DOUBLE
"dcgdl_n_lvbpw_12_hsl130e" FLOAT DOUBLE
"dxl_n_lvbpw_12_hsl130e" FLOAT DOUBLE
"dxw_n_lvbpw_12_hsl130e" FLOAT DOUBLE
"dcj_n_lvbpw_12_hsl130e" FLOAT DOUBLE
"dcjsw_n_lvbpw_12_hsl130e" FLOAT DOUBLE
"dcjswg_n_lvbpw_12_hsl130e" FLOAT DOUBLE
"dpvsat_n_lvbpw_12_hsl130e" FLOAT DOUBLE
"dpvth0_n_lvbpw_12_hsl130e" FLOAT DOUBLE
"dwwl_n_lvbpw_12_hsl130e" FLOAT DOUBLE
"is_f" FLOAT DOUBLE
"bf_f" FLOAT DOUBLE
"nf_f" FLOAT DOUBLE
"rc_f" FLOAT DOUBLE
"re_f" FLOAT DOUBLE
"cje_f" FLOAT DOUBLE
"cjc_f" FLOAT DOUBLE
"dtox_n_hglv_33_l130e" FLOAT DOUBLE
"dvth0_n_hglv_33_l130e" FLOAT DOUBLE
"du0_n_hglv_33_l130e" FLOAT DOUBLE
"dvsat_n_hglv_33_l130e" FLOAT DOUBLE
"dwint_n_hglv_33_l130e" FLOAT DOUBLE
"dlint_n_hglv_33_l130e" FLOAT DOUBLE
"drdsw_n_hglv_33_l130e" FLOAT DOUBLE
"dcgso_n_hglv_33_l130e" FLOAT DOUBLE
"dcgdo_n_hglv_33_l130e" FLOAT DOUBLE
"dcj_n_hglv_33_l130e" FLOAT DOUBLE
"dcjsw_n_hglv_33_l130e" FLOAT DOUBLE
"dcjswg_n_hglv_33_l130e" FLOAT DOUBLE
"dlvth0_n_hglv_33_l130e" FLOAT DOUBLE
"dpvth0_n_hglv_33_l130e" FLOAT DOUBLE
"dpvsat_n_hglv_33_l130e" FLOAT DOUBLE
"dwvth0_n_hglv_33_l130e" FLOAT DOUBLE
"dpu0_n_hglv_33_l130e" FLOAT DOUBLE
"dwu0_n_hglv_33_l130e" FLOAT DOUBLE
"dtox_p_hglv_33_l130e" FLOAT DOUBLE
"dvth0_p_hglv_33_l130e" FLOAT DOUBLE
"du0_p_hglv_33_l130e" FLOAT DOUBLE
"dvsat_p_hglv_33_l130e" FLOAT DOUBLE
"dwint_p_hglv_33_l130e" FLOAT DOUBLE
"dlint_p_hglv_33_l130e" FLOAT DOUBLE
"drdsw_p_hglv_33_l130e" FLOAT DOUBLE
"dcgso_p_hglv_33_l130e" FLOAT DOUBLE
"dcgdo_p_hglv_33_l130e" FLOAT DOUBLE
"dcj_p_hglv_33_l130e" FLOAT DOUBLE
"dcjsw_p_hglv_33_l130e" FLOAT DOUBLE
"dcjswg_p_hglv_33_l130e" FLOAT DOUBLE
"dlvth0_p_hglv_33_l130e" FLOAT DOUBLE
"dpvth0_p_hglv_33_l130e" FLOAT DOUBLE
"dpvsat_p_hglv_33_l130e" FLOAT DOUBLE
"dpu0_p_hglv_33_l130e" FLOAT DOUBLE
"dwvth0_p_hglv_33_l130e" FLOAT DOUBLE
"dwu0_p_hglv_33_l130e" FLOAT DOUBLE
"dtox_n_hgnvt_33_l130e" FLOAT DOUBLE
"dvth0_n_hgnvt_33_l130e" FLOAT DOUBLE
"du0_n_hgnvt_33_l130e" FLOAT DOUBLE
"dvsat_n_hgnvt_33_l130e" FLOAT DOUBLE
"dwint_n_hgnvt_33_l130e" FLOAT DOUBLE
"dlint_n_hgnvt_33_l130e" FLOAT DOUBLE
"drdsw_n_hgnvt_33_l130e" FLOAT DOUBLE
"dcgso_n_hgnvt_33_l130e" FLOAT DOUBLE
"dcgdo_n_hgnvt_33_l130e" FLOAT DOUBLE
"dcj_n_hgnvt_33_l130e" FLOAT DOUBLE
"dcjsw_n_hgnvt_33_l130e" FLOAT DOUBLE
"dcjswg_n_hgnvt_33_l130e" FLOAT DOUBLE
"dlvth0_n_hgnvt_33_l130e" FLOAT DOUBLE
"dpvth0_n_hgnvt_33_l130e" FLOAT DOUBLE
"dk3_n_hgnvt_33_l130e" FLOAT DOUBLE
"dwwl_n_hgnvt_33_l130e" FLOAT DOUBLE
"dcgsl_n_hgnvt_33_l130e" FLOAT DOUBLE
"dcgdl_n_hgnvt_33_l130e" FLOAT DOUBLE
"dtox_n_hg_33_l130e" FLOAT DOUBLE
"dcj_n_hg_33_l130e" FLOAT DOUBLE
"dvth0_n_hg_33_l130e" FLOAT DOUBLE
"dcjsw_n_hg_33_l130e" FLOAT DOUBLE
"dags_n_hg_33_l130e" FLOAT DOUBLE
"dcjswg_n_hg_33_l130e" FLOAT DOUBLE
"dlvth0_n_hg_33_l130e" FLOAT DOUBLE
"dcgdo_n_hg_33_l130e" FLOAT DOUBLE
"dlint_n_hg_33_l130e" FLOAT DOUBLE
"dcgso_n_hg_33_l130e" FLOAT DOUBLE
"dvsat_n_hg_33_l130e" FLOAT DOUBLE
"dwvth0_n_hg_33_l130e" FLOAT DOUBLE
"dwint_n_hg_33_l130e" FLOAT DOUBLE
"dpvth0_n_hg_33_l130e" FLOAT DOUBLE
"dtox_p_hg_33_l130e" FLOAT DOUBLE
"dcj_p_hg_33_l130e" FLOAT DOUBLE
"dvth0_p_hg_33_l130e" FLOAT DOUBLE
"dcjsw_p_hg_33_l130e" FLOAT DOUBLE
"dags_p_hg_33_l130e" FLOAT DOUBLE
"dcjswg_p_hg_33_l130e" FLOAT DOUBLE
"dlvth0_p_hg_33_l130e" FLOAT DOUBLE
"dcgdo_p_hg_33_l130e" FLOAT DOUBLE
"dlint_p_hg_33_l130e" FLOAT DOUBLE
"dcgso_p_hg_33_l130e" FLOAT DOUBLE
"dwint_p_hg_33_l130e" FLOAT DOUBLE
"dpvth0_p_hg_33_l130e" FLOAT DOUBLE
"dpvsat_p_hg_33_l130e" FLOAT DOUBLE
"dpu0_p_hg_33_l130e" FLOAT DOUBLE
"dtox_n_12_hsl130e" FLOAT DOUBLE
"dvth0_n_12_hsl130e" FLOAT DOUBLE
"du0_n_12_hsl130e" FLOAT DOUBLE
"dvsat_n_12_hsl130e" FLOAT DOUBLE
"dwint_n_12_hsl130e" FLOAT DOUBLE
"dlint_n_12_hsl130e" FLOAT DOUBLE
"drdsw_n_12_hsl130e" FLOAT DOUBLE
"dcgso_n_12_hsl130e" FLOAT DOUBLE
"dcgdo_n_12_hsl130e" FLOAT DOUBLE
"dcj_n_12_hsl130e" FLOAT DOUBLE
"dcjsw_n_12_hsl130e" FLOAT DOUBLE
"dcjswg_n_12_hsl130e" FLOAT DOUBLE
"dpvsat_n_12_hsl130e" FLOAT DOUBLE
"dpu0_n_12_hsl130e" FLOAT DOUBLE
"dlvth0_n_12_hsl130e" FLOAT DOUBLE
"dwu0_n_12_hsl130e" FLOAT DOUBLE
"dwvth0_n_12_hsl130e" FLOAT DOUBLE
"dpvth0_n_12_hsl130e" FLOAT DOUBLE
"dpnfactor_n_12_hsl130e" FLOAT DOUBLE
"dtox_p_12_hsl130e" FLOAT DOUBLE
"dvth0_p_12_hsl130e" FLOAT DOUBLE
"du0_p_12_hsl130e" FLOAT DOUBLE
"dvsat_p_12_hsl130e" FLOAT DOUBLE
"dwint_p_12_hsl130e" FLOAT DOUBLE
"dlint_p_12_hsl130e" FLOAT DOUBLE
"drdsw_p_12_hsl130e" FLOAT DOUBLE
"dcgso_p_12_hsl130e" FLOAT DOUBLE
"dcgdo_p_12_hsl130e" FLOAT DOUBLE
"dcj_p_12_hsl130e" FLOAT DOUBLE
"dcjsw_p_12_hsl130e" FLOAT DOUBLE
"dcjswg_p_12_hsl130e" FLOAT DOUBLE
"dpvsat_p_12_hsl130e" FLOAT DOUBLE
"dlvth0_p_12_hsl130e" FLOAT DOUBLE
"dwu0_p_12_hsl130e" FLOAT DOUBLE
"dwvth0_p_12_hsl130e" FLOAT DOUBLE
"dpvth0_p_12_hsl130e" FLOAT DOUBLE
"dpnfactor_p_12_hsl130e" FLOAT DOUBLE
"dlu0_p_12_hsl130e" FLOAT DOUBLE
"dpu0_p_12_hsl130e" FLOAT DOUBLE
"dtox_n_lv_12_hsl130e" FLOAT DOUBLE
"dvth0_n_lv_12_hsl130e" FLOAT DOUBLE
"dk3_n_lv_12_hsl130e" FLOAT DOUBLE
"dnlx_n_lv_12_hsl130e" FLOAT DOUBLE
"du0_n_lv_12_hsl130e" FLOAT DOUBLE
"dvsat_n_lv_12_hsl130e" FLOAT DOUBLE
"drdsw_n_lv_12_hsl130e" FLOAT DOUBLE
"dcgso_n_lv_12_hsl130e" FLOAT DOUBLE
"dcgdo_n_lv_12_hsl130e" FLOAT DOUBLE
"dcgsl_n_lv_12_hsl130e" FLOAT DOUBLE
"dcgdl_n_lv_12_hsl130e" FLOAT DOUBLE
"dxl_n_lv_12_hsl130e" FLOAT DOUBLE
"dxw_n_lv_12_hsl130e" FLOAT DOUBLE
"dcj_n_lv_12_hsl130e" FLOAT DOUBLE
"dcjsw_n_lv_12_hsl130e" FLOAT DOUBLE
"dcjswg_n_lv_12_hsl130e" FLOAT DOUBLE
"dpvsat_n_lv_12_hsl130e" FLOAT DOUBLE
"dpvth0_n_lv_12_hsl130e" FLOAT DOUBLE
"dwwl_n_lv_12_hsl130e" FLOAT DOUBLE
"dtox_p_lv_12_hsl130e" FLOAT DOUBLE
"dvth0_p_lv_12_hsl130e" FLOAT DOUBLE
"dk3_p_lv_12_hsl130e" FLOAT DOUBLE
"dnlx_p_lv_12_hsl130e" FLOAT DOUBLE
"ddvt0_p_lv_12_hsl130e" FLOAT DOUBLE
"du0_p_lv_12_hsl130e" FLOAT DOUBLE
"dvsat_p_lv_12_hsl130e" FLOAT DOUBLE
"drdsw_p_lv_12_hsl130e" FLOAT DOUBLE
"dcgso_p_lv_12_hsl130e" FLOAT DOUBLE
"dcgdo_p_lv_12_hsl130e" FLOAT DOUBLE
"dcgsl_p_lv_12_hsl130e" FLOAT DOUBLE
"dcgdl_p_lv_12_hsl130e" FLOAT DOUBLE
"dxl_p_lv_12_hsl130e" FLOAT DOUBLE
"dxw_p_lv_12_hsl130e" FLOAT DOUBLE
"dcj_p_lv_12_hsl130e" FLOAT DOUBLE
"dcjsw_p_lv_12_hsl130e" FLOAT DOUBLE
"dcjswg_p_lv_12_hsl130e" FLOAT DOUBLE
"dpvth0_p_lv_12_hsl130e" FLOAT DOUBLE
"dpu0_p_lv_12_hsl130e" FLOAT DOUBLE
"dwwl_p_lv_12_hsl130e" FLOAT DOUBLE
"dtox_n_nvt_12_hsl130e" FLOAT DOUBLE
"dvth0_n_nvt_12_hsl130e" FLOAT DOUBLE
"dk3_n_nvt_12_hsl130e" FLOAT DOUBLE
"dnlx_n_nvt_12_hsl130e" FLOAT DOUBLE
"dags_n_nvt_12_hsl130e" FLOAT DOUBLE
"dcgso_n_nvt_12_hsl130e" FLOAT DOUBLE
"dcgdo_n_nvt_12_hsl130e" FLOAT DOUBLE
"dcgdl_n_nvt_12_hsl130e" FLOAT DOUBLE
"dcgsl_n_nvt_12_hsl130e" FLOAT DOUBLE
"dxl_n_nvt_12_hsl130e" FLOAT DOUBLE
"dxw_n_nvt_12_hsl130e" FLOAT DOUBLE
"dcj_n_nvt_12_hsl130e" FLOAT DOUBLE
"dcjsw_n_nvt_12_hsl130e" FLOAT DOUBLE
"dcjswg_n_nvt_12_hsl130e" FLOAT DOUBLE
"dpvth0_n_nvt_12_hsl130e" FLOAT DOUBLE
"dpu0_n_nvt_12_hsl130e" FLOAT DOUBLE
"d_cj_mimcaps_20f_mml130e" FLOAT DOUBLE
"d_cj_mimcaps_15f_mml130e" FLOAT DOUBLE
"d_cj_mim_mm" FLOAT DOUBLE
"d_c1_vp" FLOAT DOUBLE
"d_cox_vp" FLOAT DOUBLE
"drend_rnnd_mml130e" FLOAT DOUBLE
"drs_rnnd_mml130e" FLOAT DOUBLE
"ddw_rnnd_mml130e" FLOAT DOUBLE
"drend_rnppo_mml130e" FLOAT DOUBLE
"drs_rnppo_mml130e" FLOAT DOUBLE
"ddw_rnppo_mml130e" FLOAT DOUBLE
"drend_rnhr1000_mml130e" FLOAT DOUBLE
"drs_rnhr1000_mml130e" FLOAT DOUBLE
"ddw_rnhr1000_mml130e" FLOAT DOUBLE
"drs_rsnd_mml130e" FLOAT DOUBLE
"drs_rspd_mml130e" FLOAT DOUBLE
"drs_rsnpo_mml130e" FLOAT DOUBLE
"drs_rsppo_mml130e" FLOAT DOUBLE
"dtox_n_12_spl130e" FLOAT DOUBLE
"dvth0_n_12_spl130e" FLOAT DOUBLE
"du0_n_12_spl130e" FLOAT DOUBLE
"dvsat_n_12_spl130e" FLOAT DOUBLE
"dwint_n_12_spl130e" FLOAT DOUBLE
"dlint_n_12_spl130e" FLOAT DOUBLE
"drdsw_n_12_spl130e" FLOAT DOUBLE
"dcgso_n_12_spl130e" FLOAT DOUBLE
"dcgdo_n_12_spl130e" FLOAT DOUBLE
"dcj_n_12_spl130e" FLOAT DOUBLE
"dcjsw_n_12_spl130e" FLOAT DOUBLE
"dcjswg_n_12_spl130e" FLOAT DOUBLE
"dlvth0_n_12_spl130e" FLOAT DOUBLE
"dpvth0_n_12_spl130e" FLOAT DOUBLE
"dwu0_n_12_spl130e" FLOAT DOUBLE
"dwvth0_n_12_spl130e" FLOAT DOUBLE
"dpvsat_n_12_spl130e" FLOAT DOUBLE
"dpu0_n_12_spl130e" FLOAT DOUBLE
"dtox_p_12_spl130e" FLOAT DOUBLE
"dvth0_p_12_spl130e" FLOAT DOUBLE
"du0_p_12_spl130e" FLOAT DOUBLE
"dvsat_p_12_spl130e" FLOAT DOUBLE
"dwint_p_12_spl130e" FLOAT DOUBLE
"dlint_p_12_spl130e" FLOAT DOUBLE
"drdsw_p_12_spl130e" FLOAT DOUBLE
"dcgso_p_12_spl130e" FLOAT DOUBLE
"dcgdo_p_12_spl130e" FLOAT DOUBLE
"dcj_p_12_spl130e" FLOAT DOUBLE
"dcjsw_p_12_spl130e" FLOAT DOUBLE
"dcjswg_p_12_spl130e" FLOAT DOUBLE
"dpvth0_p_12_spl130e" FLOAT DOUBLE
"dpvsat_p_12_spl130e" FLOAT DOUBLE
"dlvth0_p_12_spl130e" FLOAT DOUBLE
"dwu0_p_12_spl130e" FLOAT DOUBLE
"dwvth0_p_12_spl130e" FLOAT DOUBLE
"dpu0_p_12_spl130e" FLOAT DOUBLE
) PROP(
"key" "parameters"
)
VALUE
"top-level" "top-level" (
2.700000000000000e+01
2.700000000000000e+01
0.000000000000000e+00
0.000000000000000e+00
0.000000000000000e+00
0.000000000000000e+00
0.000000000000000e+00
0.000000000000000e+00
0.000000000000000e+00
0.000000000000000e+00
0.000000000000000e+00
0.000000000000000e+00
0.000000000000000e+00
0.000000000000000e+00
0.000000000000000e+00
0.000000000000000e+00
0.000000000000000e+00
0.000000000000000e+00
0.000000000000000e+00
0.000000000000000e+00
0.000000000000000e+00
0.000000000000000e+00
0.000000000000000e+00
0.000000000000000e+00
0.000000000000000e+00
0.000000000000000e+00
0.000000000000000e+00
0.000000000000000e+00
0.000000000000000e+00
0.000000000000000e+00
0.000000000000000e+00
0.000000000000000e+00
0.000000000000000e+00
0.000000000000000e+00
0.000000000000000e+00
0.000000000000000e+00
0.000000000000000e+00
0.000000000000000e+00
0.000000000000000e+00
0.000000000000000e+00
0.000000000000000e+00
0.000000000000000e+00
0.000000000000000e+00
0.000000000000000e+00
0.000000000000000e+00
0.000000000000000e+00
0.000000000000000e+00
0.000000000000000e+00
0.000000000000000e+00
0.000000000000000e+00
0.000000000000000e+00
0.000000000000000e+00
0.000000000000000e+00
0.000000000000000e+00
0.000000000000000e+00
0.000000000000000e+00
0.000000000000000e+00
0.000000000000000e+00
0.000000000000000e+00
0.000000000000000e+00
0.000000000000000e+00
0.000000000000000e+00
0.000000000000000e+00
0.000000000000000e+00
0.000000000000000e+00
0.000000000000000e+00
0.000000000000000e+00
0.000000000000000e+00
0.000000000000000e+00
0.000000000000000e+00
0.000000000000000e+00
0.000000000000000e+00
0.000000000000000e+00
0.000000000000000e+00
0.000000000000000e+00
0.000000000000000e+00
0.000000000000000e+00
0.000000000000000e+00
0.000000000000000e+00
0.000000000000000e+00
0.000000000000000e+00
0.000000000000000e+00
0.000000000000000e+00
0.000000000000000e+00
0.000000000000000e+00
0.000000000000000e+00
0.000000000000000e+00
0.000000000000000e+00
0.000000000000000e+00
0.000000000000000e+00
0.000000000000000e+00
0.000000000000000e+00
0.000000000000000e+00
0.000000000000000e+00
0.000000000000000e+00
0.000000000000000e+00
0.000000000000000e+00
0.000000000000000e+00
0.000000000000000e+00
0.000000000000000e+00
0.000000000000000e+00
0.000000000000000e+00
0.000000000000000e+00
0.000000000000000e+00
0.000000000000000e+00
0.000000000000000e+00
0.000000000000000e+00
0.000000000000000e+00
0.000000000000000e+00
0.000000000000000e+00
0.000000000000000e+00
0.000000000000000e+00
0.000000000000000e+00
0.000000000000000e+00
0.000000000000000e+00
0.000000000000000e+00
0.000000000000000e+00
0.000000000000000e+00
0.000000000000000e+00
0.000000000000000e+00
0.000000000000000e+00
0.000000000000000e+00
0.000000000000000e+00
0.000000000000000e+00
0.000000000000000e+00
0.000000000000000e+00
0.000000000000000e+00
0.000000000000000e+00
0.000000000000000e+00
0.000000000000000e+00
0.000000000000000e+00
0.000000000000000e+00
0.000000000000000e+00
0.000000000000000e+00
0.000000000000000e+00
0.000000000000000e+00
0.000000000000000e+00
0.000000000000000e+00
0.000000000000000e+00
0.000000000000000e+00
0.000000000000000e+00
0.000000000000000e+00
0.000000000000000e+00
0.000000000000000e+00
0.000000000000000e+00
0.000000000000000e+00
0.000000000000000e+00
0.000000000000000e+00
0.000000000000000e+00
0.000000000000000e+00
0.000000000000000e+00
0.000000000000000e+00
0.000000000000000e+00
0.000000000000000e+00
0.000000000000000e+00
0.000000000000000e+00
0.000000000000000e+00
0.000000000000000e+00
0.000000000000000e+00
0.000000000000000e+00
0.000000000000000e+00
0.000000000000000e+00
0.000000000000000e+00
0.000000000000000e+00
0.000000000000000e+00
0.000000000000000e+00
0.000000000000000e+00
0.000000000000000e+00
0.000000000000000e+00
0.000000000000000e+00
0.000000000000000e+00
0.000000000000000e+00
0.000000000000000e+00
0.000000000000000e+00
0.000000000000000e+00
0.000000000000000e+00
0.000000000000000e+00
0.000000000000000e+00
0.000000000000000e+00
0.000000000000000e+00
0.000000000000000e+00
0.000000000000000e+00
0.000000000000000e+00
0.000000000000000e+00
0.000000000000000e+00
0.000000000000000e+00
0.000000000000000e+00
0.000000000000000e+00
0.000000000000000e+00
0.000000000000000e+00
0.000000000000000e+00
0.000000000000000e+00
0.000000000000000e+00
0.000000000000000e+00
0.000000000000000e+00
0.000000000000000e+00
0.000000000000000e+00
0.000000000000000e+00
0.000000000000000e+00
0.000000000000000e+00
0.000000000000000e+00
0.000000000000000e+00
0.000000000000000e+00
0.000000000000000e+00
0.000000000000000e+00
0.000000000000000e+00
0.000000000000000e+00
0.000000000000000e+00
0.000000000000000e+00
0.000000000000000e+00
0.000000000000000e+00
0.000000000000000e+00
0.000000000000000e+00
0.000000000000000e+00
0.000000000000000e+00
0.000000000000000e+00
0.000000000000000e+00
0.000000000000000e+00
0.000000000000000e+00
0.000000000000000e+00
0.000000000000000e+00
0.000000000000000e+00
0.000000000000000e+00
0.000000000000000e+00
0.000000000000000e+00
0.000000000000000e+00
0.000000000000000e+00
0.000000000000000e+00
0.000000000000000e+00
0.000000000000000e+00
0.000000000000000e+00
0.000000000000000e+00
0.000000000000000e+00
0.000000000000000e+00
0.000000000000000e+00
0.000000000000000e+00
0.000000000000000e+00
0.000000000000000e+00
0.000000000000000e+00
0.000000000000000e+00
0.000000000000000e+00
0.000000000000000e+00
0.000000000000000e+00
0.000000000000000e+00
0.000000000000000e+00
0.000000000000000e+00
0.000000000000000e+00
0.000000000000000e+00
0.000000000000000e+00
0.000000000000000e+00
0.000000000000000e+00
0.000000000000000e+00
0.000000000000000e+00
0.000000000000000e+00
0.000000000000000e+00
0.000000000000000e+00
0.000000000000000e+00
0.000000000000000e+00
0.000000000000000e+00
0.000000000000000e+00
0.000000000000000e+00
0.000000000000000e+00
0.000000000000000e+00
0.000000000000000e+00
0.000000000000000e+00
0.000000000000000e+00
0.000000000000000e+00
0.000000000000000e+00
0.000000000000000e+00
0.000000000000000e+00
0.000000000000000e+00
0.000000000000000e+00
0.000000000000000e+00
0.000000000000000e+00
0.000000000000000e+00
0.000000000000000e+00
0.000000000000000e+00
0.000000000000000e+00
0.000000000000000e+00
0.000000000000000e+00
0.000000000000000e+00
0.000000000000000e+00
0.000000000000000e+00
0.000000000000000e+00
0.000000000000000e+00
0.000000000000000e+00
0.000000000000000e+00
0.000000000000000e+00
0.000000000000000e+00
0.000000000000000e+00
0.000000000000000e+00
0.000000000000000e+00
0.000000000000000e+00
0.000000000000000e+00
0.000000000000000e+00
0.000000000000000e+00
0.000000000000000e+00
0.000000000000000e+00
0.000000000000000e+00
0.000000000000000e+00
0.000000000000000e+00
0.000000000000000e+00
0.000000000000000e+00
0.000000000000000e+00
1.000000000000000e+00
1.000000000000000e+00
1.000000000000000e+00
1.000000000000000e+00
1.000000000000000e+00
1.000000000000000e+00
1.000000000000000e+00
0.000000000000000e+00
0.000000000000000e+00
0.000000000000000e+00
0.000000000000000e+00
0.000000000000000e+00
0.000000000000000e+00
0.000000000000000e+00
0.000000000000000e+00
0.000000000000000e+00
0.000000000000000e+00
0.000000000000000e+00
0.000000000000000e+00
0.000000000000000e+00
0.000000000000000e+00
0.000000000000000e+00
0.000000000000000e+00
0.000000000000000e+00
0.000000000000000e+00
0.000000000000000e+00
0.000000000000000e+00
0.000000000000000e+00
0.000000000000000e+00
0.000000000000000e+00
0.000000000000000e+00
0.000000000000000e+00
0.000000000000000e+00
0.000000000000000e+00
0.000000000000000e+00
0.000000000000000e+00
0.000000000000000e+00
0.000000000000000e+00
0.000000000000000e+00
0.000000000000000e+00
0.000000000000000e+00
0.000000000000000e+00
0.000000000000000e+00
0.000000000000000e+00
0.000000000000000e+00
0.000000000000000e+00
0.000000000000000e+00
0.000000000000000e+00
0.000000000000000e+00
0.000000000000000e+00
0.000000000000000e+00
0.000000000000000e+00
0.000000000000000e+00
0.000000000000000e+00
0.000000000000000e+00
0.000000000000000e+00
0.000000000000000e+00
0.000000000000000e+00
0.000000000000000e+00
0.000000000000000e+00
0.000000000000000e+00
0.000000000000000e+00
0.000000000000000e+00
0.000000000000000e+00
0.000000000000000e+00
0.000000000000000e+00
0.000000000000000e+00
0.000000000000000e+00
0.000000000000000e+00
0.000000000000000e+00
0.000000000000000e+00
0.000000000000000e+00
0.000000000000000e+00
0.000000000000000e+00
0.000000000000000e+00
0.000000000000000e+00
0.000000000000000e+00
0.000000000000000e+00
0.000000000000000e+00
0.000000000000000e+00
0.000000000000000e+00
0.000000000000000e+00
0.000000000000000e+00
0.000000000000000e+00
0.000000000000000e+00
0.000000000000000e+00
0.000000000000000e+00
0.000000000000000e+00
0.000000000000000e+00
0.000000000000000e+00
0.000000000000000e+00
0.000000000000000e+00
0.000000000000000e+00
0.000000000000000e+00
0.000000000000000e+00
0.000000000000000e+00
0.000000000000000e+00
0.000000000000000e+00
0.000000000000000e+00
0.000000000000000e+00
0.000000000000000e+00
0.000000000000000e+00
0.000000000000000e+00
0.000000000000000e+00
0.000000000000000e+00
0.000000000000000e+00
0.000000000000000e+00
0.000000000000000e+00
0.000000000000000e+00
0.000000000000000e+00
0.000000000000000e+00
0.000000000000000e+00
0.000000000000000e+00
0.000000000000000e+00
0.000000000000000e+00
0.000000000000000e+00
0.000000000000000e+00
0.000000000000000e+00
0.000000000000000e+00
0.000000000000000e+00
0.000000000000000e+00
0.000000000000000e+00
0.000000000000000e+00
0.000000000000000e+00
0.000000000000000e+00
0.000000000000000e+00
0.000000000000000e+00
0.000000000000000e+00
0.000000000000000e+00
0.000000000000000e+00
0.000000000000000e+00
0.000000000000000e+00
0.000000000000000e+00
0.000000000000000e+00
0.000000000000000e+00
0.000000000000000e+00
0.000000000000000e+00
0.000000000000000e+00
0.000000000000000e+00
0.000000000000000e+00
0.000000000000000e+00
0.000000000000000e+00
0.000000000000000e+00
0.000000000000000e+00
0.000000000000000e+00
0.000000000000000e+00
0.000000000000000e+00
0.000000000000000e+00
0.000000000000000e+00
0.000000000000000e+00
0.000000000000000e+00
0.000000000000000e+00
0.000000000000000e+00
0.000000000000000e+00
0.000000000000000e+00
0.000000000000000e+00
0.000000000000000e+00
0.000000000000000e+00
0.000000000000000e+00
0.000000000000000e+00
0.000000000000000e+00
0.000000000000000e+00
0.000000000000000e+00
0.000000000000000e+00
0.000000000000000e+00
0.000000000000000e+00
0.000000000000000e+00
0.000000000000000e+00
0.000000000000000e+00
0.000000000000000e+00
0.000000000000000e+00
0.000000000000000e+00
0.000000000000000e+00
0.000000000000000e+00
0.000000000000000e+00
0.000000000000000e+00
0.000000000000000e+00
0.000000000000000e+00
0.000000000000000e+00
0.000000000000000e+00
0.000000000000000e+00
0.000000000000000e+00
0.000000000000000e+00
0.000000000000000e+00
0.000000000000000e+00
0.000000000000000e+00
0.000000000000000e+00
0.000000000000000e+00
0.000000000000000e+00
0.000000000000000e+00
0.000000000000000e+00
0.000000000000000e+00
0.000000000000000e+00
0.000000000000000e+00
0.000000000000000e+00
0.000000000000000e+00
0.000000000000000e+00
0.000000000000000e+00
0.000000000000000e+00
0.000000000000000e+00
0.000000000000000e+00
0.000000000000000e+00
0.000000000000000e+00
0.000000000000000e+00
0.000000000000000e+00
0.000000000000000e+00
0.000000000000000e+00
0.000000000000000e+00
0.000000000000000e+00
0.000000000000000e+00
0.000000000000000e+00
0.000000000000000e+00
0.000000000000000e+00
0.000000000000000e+00
0.000000000000000e+00
0.000000000000000e+00
0.000000000000000e+00
0.000000000000000e+00
0.000000000000000e+00
0.000000000000000e+00
0.000000000000000e+00
0.000000000000000e+00
0.000000000000000e+00
0.000000000000000e+00
0.000000000000000e+00
0.000000000000000e+00
0.000000000000000e+00
0.000000000000000e+00
0.000000000000000e+00
0.000000000000000e+00
0.000000000000000e+00
0.000000000000000e+00
0.000000000000000e+00
0.000000000000000e+00
0.000000000000000e+00
0.000000000000000e+00
0.000000000000000e+00
)
END
