HEADER
"PSFversion" "1.00"
"design" "(\"Project_Lib1_sim\" \"delay_chain_sim\" \"schematic\" \"\")"
"simulator" "spectre"
"temperature" "27"
"host" ""
"date" "May  3 16:34:17 2022"
"title" ""
"analysisList" "()"
END
