HEADER
"PSFversion" "1.00"
"I5n" "analogLib_idc_spectre"
"C0n" "analogLib_cap_spectre"
"I4n" "photodiode"
