HEADER
"PSFversion" "1.00"
"D0n" "umc13mmrf_DIONW_L130E_spectre"
"Nv" ":1v"
"Pv" ":2v"
