HEADER
"PSFversion" "1.00"
"design" "(\"Project_Lib1_sim\" \"dff_ext_reset_sim\" \"schematic\" \"\")"
"simulator" "spectre"
"temperature" "27"
"host" ""
"date" "Apr 27 10:30:31 2022"
"title" ""
"analysisList" "()"
END
