HEADER
"PSFversion" "1.00"
"NM6n NM5n NM4n NM3n NM1n NM0n" "umc13mmrf_N_12_HSL130E_spectre"
"PM5n PM4n PM3n PM2n PM1n PM0n" "umc13mmrf_P_12_HSL130E_spectre"
"CLKv" ":1v"
"Dv" ":2v"
"GNDv" ":3v"
"NOT_Qv" ":4v"
"NOT_Rv" ":5v"
"Qv" ":6v"
"VDDv" ":7v"
