HEADER
"PSFversion" "1.00"
"I0n" "binary"
"C0n" "analogLib_cap_spectre"
"V2n V1n V0n" "analogLib_vpulse_spectre"
