HEADER
"PSFversion" "1.00"
"I7n I8n I9n I3n I2n I1n" "NAND"
"I14n I13n I12n I10n I11n" "inv"
"A1v" ":1v"
"A2v" ":2v"
"A3v" ":3v"
"A4v" ":4v"
"A5v" ":5v"
"A6v" ":6v"
"A7v" ":7v"
"BCv" ":8v"
"GNDv" ":9v"
"VDDv" ":10v"
