HEADER
"PSFversion" "1.00"
"I0n" "dflipflop_no_reset"
"I1n" "reset_pullup"
"V0n" "analogLib_vdc_spectre"
"V3n V2n V1n" "analogLib_vpulse_spectre"
"C1n C0n" "analogLib_cap_spectre"
