HEADER
"PSFversion" "1.00"
"PM3n PM2n PM1n PM0n" "umc13mmrf_P_12_HSL130E_spectre"
"Iv" ":1v"
"NOT_Rv" ":2v"
"VDDv" ":3v"
