HEADER
"PSFversion" "1.00"
"__NEXT_FILE__" "dff_ext_reset_sim"
