HEADER
"PSFversion" "1.00"
"design" "(\"Project_Lib1_sim\" \"comparator_sim\" \"schematic\" \"\")"
"simulator" "spectre"
"temperature" "27"
"host" ""
"date" "May  9 14:00:13 2022"
"title" ""
"analysisList" "()"
END
