HEADER
"PSFversion" "1.00"
"design" "(\"Project_Lib1_sim\" \"inv_sim\" \"schematic\" \"\")"
"simulator" "spectre"
"temperature" "27"
"host" ""
"date" "Apr 26 17:34:52 2022"
"title" ""
"analysisList" "()"
END
