HEADER
"PSFversion" "1.00"
"design" "(\"Project_Lib1_sim\" \"inv_sim\" \"schematic\" \"\")"
"simulator" "spectre"
"temperature" "27"
"host" ""
"date" "May  3 16:18:14 2022"
"title" ""
"analysisList" "()"
END
